 Gaussian 16, Revision C.01,
 Gaussian 16:  ES64L-G16RevC.01  3-Jul-2019

 ----------------------------------------------------------------------
 # cam-b3lyp/gen pseudo=read TD=NStates=10 Geom=Check Guess=Read empiri
 caldispersion=gd3bj SCRF=(Solvent=CH3CN)
 ----------------------------------------------------------------------

 ---------
 PbCl2_acn
 ---------
 Structure from the checkpoint file:  "02-PbCl2_acn.chk"
 Charge =  0 Multiplicity = 1

                         Standard orientation:
 ---------------------------------------------------------------------
 Center     Atomic      Atomic             Coordinates (Angstroms)
 Number     Number       Type             X           Y           Z
 ---------------------------------------------------------------------
      1         82           0       -0.373435   -0.007254   -0.536809
      2         17           0       -0.869116   -1.961036    1.216625
      3         17           0       -1.006446    1.905758    1.226375
      4          6           0        1.935982    3.730427    0.038002
      5          1           0        2.965880    3.527222    0.389617
      6          1           0        1.869497    4.778871   -0.310472
      7          1           0        1.218354    3.568775    0.869162
      8          6           0        1.582957    2.816938   -1.033257
      9          7           0        1.271638    2.052807   -1.871580
     10          6           0        2.181690   -3.589865    0.010378
     11          1           0        3.201289   -3.328515    0.353875
     12          1           0        2.174023   -4.638275   -0.344441
     13          1           0        1.463475   -3.476475    0.848997
     14          6           0        1.765224   -2.692207   -1.051424
     15          7           0        1.401918   -1.942023   -1.881379
     16          6           0       -4.149727   -0.082622    1.429723
     17          1           0       -5.237866    0.118479    1.435853
     18          1           0       -3.942212   -1.052726    1.920908
     19          1           0       -3.613339    0.719773    1.975341
     20          6           0       -3.642303   -0.116788    0.071339
     21          7           0       -3.191550   -0.134914   -1.015456
     22          6           0        4.101468    0.038728    2.056936
     23          1           0        3.892485    0.141304    3.139101
     24          1           0        4.631460   -0.916699    1.877025
     25          1           0        4.743103    0.878867    1.728131
     26          6           0        2.857043    0.053166    1.313248
     27          7           0        1.853148    0.062316    0.710496
 ---------------------------------------------------------------------

 SCF Done:  E(RCAM-B3LYP) =  -564.463845382     A.U. after   11 cycles

 Excitation energies and oscillator strengths:

 Excited State   1:      Singlet-A      6.2642 eV  197.93 nm  f=0.1797  <S**2>=0.000
      52 -> 56         0.11236
      53 -> 54         0.58660
      53 -> 55         0.19360
      53 -> 56         0.27671
 This state for optimization and/or second-order correction.
 Total Energy, E(TD-HF/TD-DFT) =  -564.233641535
 Copying the excited state density for this state as the 1-particle RhoCI density.

 Excited State   2:      Singlet-A      6.3167 eV  196.28 nm  f=0.1563  <S**2>=0.000
      52 -> 55         0.10850
      52 -> 56        -0.27263
      53 -> 54        -0.20015
      53 -> 55         0.54809
      53 -> 56         0.18050

 Excited State   3:      Singlet-A      6.4108 eV  193.40 nm  f=0.1283  <S**2>=0.000
      49 -> 56        -0.11082
      50 -> 56         0.10841
      53 -> 54        -0.18018
      53 -> 55        -0.23533
      53 -> 56         0.58302

 Excited State   4:      Singlet-A      6.4761 eV  191.45 nm  f=0.0035  <S**2>=0.000
      49 -> 56        -0.11613
      52 -> 54         0.51189
      52 -> 55        -0.41915
      53 -> 56        -0.12261

 Excited State   5:      Singlet-A      6.5867 eV  188.23 nm  f=0.0303  <S**2>=0.000
      50 -> 54        -0.17864
      50 -> 55         0.27793
      50 -> 56        -0.11427
      51 -> 54        -0.16499
      51 -> 55         0.42799
      51 -> 56        -0.34810

 Excited State   6:      Singlet-A      6.6032 eV  187.76 nm  f=0.0455  <S**2>=0.000
      50 -> 54        -0.34800
      50 -> 56         0.24269
      51 -> 54         0.43393
      51 -> 55        -0.14410
      51 -> 56        -0.23832

 Excited State   7:      Singlet-A      6.6605 eV  186.15 nm  f=0.1017  <S**2>=0.000
      49 -> 54         0.11403
      49 -> 55        -0.11331
      51 -> 55         0.16566
      52 -> 54         0.37150
      52 -> 55         0.44614
      52 -> 56        -0.11137
      53 -> 54         0.12763
      53 -> 55        -0.17232

 Excited State   8:      Singlet-A      6.6973 eV  185.13 nm  f=0.0689  <S**2>=0.000
      49 -> 54        -0.11600
      51 -> 54        -0.13077
      51 -> 55        -0.17487
      51 -> 56        -0.10016
      52 -> 54         0.20914
      52 -> 55         0.23161
      52 -> 56         0.52104
      53 -> 54        -0.10659
      53 -> 55         0.13272

 Excited State   9:      Singlet-A      6.8436 eV  181.17 nm  f=0.0413  <S**2>=0.000
      49 -> 54        -0.11242
      50 -> 54         0.40183
      50 -> 56        -0.15245
      51 -> 54         0.42937
      51 -> 55         0.18598
      51 -> 56        -0.12375

 Excited State  10:      Singlet-A      6.8653 eV  180.59 nm  f=0.0467  <S**2>=0.000
      48 -> 56        -0.11395
      49 -> 54        -0.10778
      49 -> 55         0.10013
      50 -> 54        -0.24689
      50 -> 55         0.15035
      51 -> 54         0.13361
      51 -> 55         0.24335
      51 -> 56         0.50068
      52 -> 56         0.11674

 The electronic state is 1-A.
 Alpha  occ. eigenvalues --  -14.42927 -14.41184 -14.40937 -14.40914 -10.34081
 Alpha  occ. eigenvalues --  -10.32425 -10.32042 -10.32013 -10.30256 -10.29154
 Alpha  occ. eigenvalues --  -10.29130 -10.29129  -1.02295  -1.00669  -1.00312
 Alpha  occ. eigenvalues --   -1.00284  -0.86617  -0.85474  -0.85391  -0.85366
 Alpha  occ. eigenvalues --   -0.81974  -0.80916  -0.61006  -0.58538  -0.58361
 Alpha  occ. eigenvalues --   -0.58302  -0.57497  -0.53939  -0.53701  -0.53107
 Alpha  occ. eigenvalues --   -0.52753  -0.52602  -0.52541  -0.52406  -0.52378
 Alpha  occ. eigenvalues --   -0.49207  -0.46965  -0.46367  -0.45631  -0.43154
 Alpha  occ. eigenvalues --   -0.43054  -0.41551  -0.41528  -0.40993  -0.40616
 Alpha  occ. eigenvalues --   -0.40553  -0.40139  -0.36173  -0.34774  -0.33873
 Alpha  occ. eigenvalues --   -0.33484  -0.32932  -0.31621
 Alpha virt. eigenvalues --    0.01439   0.01613   0.02255   0.04611   0.04991
 Alpha virt. eigenvalues --    0.05702   0.06054   0.06162   0.06539   0.07478
 Alpha virt. eigenvalues --    0.07942   0.08009   0.09158   0.09340   0.10386

 Mulliken charges:
               1
     1  Pb   1.133839
     2  Cl  -0.605072
     3  Cl  -0.598034
     4  C   -0.233773
     5  H    0.145956
     6  H    0.151136
     7  H    0.110231
     8  C   -0.014045
     9  N   -0.162209
    10  C   -0.235515
    11  H    0.146148
    12  H    0.152066
    13  H    0.111006
    14  C   -0.013229
    15  N   -0.162584
    16  C   -0.229178
    17  H    0.149058
    18  H    0.131981
    19  H    0.117213
    20  C   -0.018694
    21  N   -0.172168
    22  C   -0.231930
    23  H    0.150505
    24  H    0.148988
    25  H    0.149152
    26  C    0.061863
    27  N   -0.182710
 Sum of Mulliken charges =  -0.00000

 Dipole moment (field-independent basis, Debye):
    X=             10.8424    Y=              0.2708    Z=              4.7335  Tot=             11.8338
 Quadrupole moment (field-independent basis, Debye-Ang):
   XX=            -57.0263   YY=            -95.0882   ZZ=           -122.7233
   XY=             -0.0837   XZ=             14.9788   YZ=              0.2902

 Normal termination of Gaussian 16 at Wed Nov 11 21:38:32 2020.
