 Gaussian 16, Revision C.01,
 Gaussian 16:  ES64L-G16RevC.01  3-Jul-2019

 ----------------------------------------------------------------------
 # cam-b3lyp/gen pseudo=read TD=NStates=10 Geom=Check Guess=Read empiri
 caldispersion=gd3bj SCRF=(Solvent=n,n-DiMethylFormamide)
 ----------------------------------------------------------------------

 ---------
 PbCl2_DMF
 ---------
 Structure from the checkpoint file:  "02-PbCl2_DMF.chk"
 Charge =  0 Multiplicity = 1

                         Standard orientation:
 ---------------------------------------------------------------------
 Center     Atomic      Atomic             Coordinates (Angstroms)
 Number     Number       Type             X           Y           Z
 ---------------------------------------------------------------------
      1         82           0        0.383771   -0.814565    0.082640
      2         17           0        2.133316   -1.951773   -1.638353
      3         17           0        0.654466   -2.678080    2.050233
      4          8           0        0.082170    1.412142   -1.572153
      5          6           0       -0.692626    2.388274   -1.631310
      6          1           0       -0.317006    3.441691   -1.647930
      7          7           0       -2.043616    2.320783   -1.691429
      8          6           0       -2.729261    1.038194   -1.695197
      9          6           0       -2.859401    3.522592   -1.753551
     10          1           0       -2.206628    4.415172   -1.738842
     11          1           0       -3.551369    3.569221   -0.887140
     12          1           0       -3.465133    3.534834   -2.683071
     13          1           0       -3.323325    0.908845   -0.766676
     14          1           0       -3.413901    0.975721   -2.565073
     15          1           0       -1.973267    0.237654   -1.759937
     16          8           0       -1.259826    0.948884    1.543109
     17          6           0       -1.651953    2.131649    1.604292
     18          1           0       -2.739486    2.390311    1.655161
     19          7           0       -0.861878    3.231153    1.619520
     20          6           0        0.589057    3.123271    1.580732
     21          6           0       -1.431829    4.565426    1.717784
     22          1           0       -2.534881    4.497213    1.755072
     23          1           0       -1.138388    5.178767    0.840629
     24          1           0       -1.072004    5.075601    2.635392
     25          1           0        0.990399    3.697776    0.720470
     26          1           0        1.027828    3.540283    2.511200
     27          1           0        0.877727    2.064604    1.476017
     28          8           0        2.352138    0.400092    1.088802
     29          6           0        3.574602    0.308604    0.808890
     30          1           0        4.291442   -0.191702    1.503186
     31          7           0        4.164175    0.791169   -0.297336
     32          6           0        3.402900    1.468649   -1.338978
     33          6           0        5.584747    0.586295   -0.537508
     34          1           0        6.040777    0.081803    0.333902
     35          1           0        6.090477    1.559434   -0.700176
     36          1           0        5.732626   -0.043790   -1.438345
     37          1           0        3.841846    2.469795   -1.526864
     38          1           0        3.440996    0.873862   -2.273268
     39          1           0        2.348796    1.567055   -1.027400
     40          8           0       -1.480164   -2.218084   -1.087045
     41          6           0       -2.731441   -2.298948   -1.099158
     42          1           0       -3.287695   -2.507849   -2.045305
     43          7           0       -3.539542   -2.157406   -0.031942
     44          6           0       -2.982817   -1.911751    1.296807
     45          6           0       -4.988233   -2.161172   -0.182049
     46          1           0       -5.248730   -2.359576   -1.237998
     47          1           0       -5.409948   -1.177554    0.110810
     48          1           0       -5.442106   -2.944518    0.457518
     49          1           0       -2.792079   -0.830214    1.463202
     50          1           0       -3.697186   -2.281671    2.054800
     51          1           0       -2.022264   -2.451623    1.404305
 ---------------------------------------------------------------------

 SCF Done:  E(RCAM-B3LYP) =  -1027.52251624     A.U. after   11 cycles

 Excitation energies and oscillator strengths:

 Excited State   1:      Singlet-A      5.6395 eV  219.85 nm  f=0.2175  <S**2>=0.000
      76 ->  93       -0.15487
      77 ->  90       -0.18676
      89 ->  90        0.57221
 This state for optimization and/or second-order correction.
 Total Energy, E(TD-HF/TD-DFT) =  -1027.31526672
 Copying the excited state density for this state as the 1-particle RhoCI density.

 Excited State   2:      Singlet-A      5.7928 eV  214.03 nm  f=0.0475  <S**2>=0.000
      78 ->  91        0.35739
      78 ->  93       -0.17252
      78 ->  97        0.14653
      79 ->  91        0.14980
      79 ->  92        0.16266
      79 ->  93       -0.14689
      80 ->  91       -0.11479
      80 ->  93        0.10026
      81 ->  91        0.12796
      89 ->  91        0.32761

 Excited State   3:      Singlet-A      5.8129 eV  213.29 nm  f=0.0052  <S**2>=0.000
      78 ->  92       -0.24616
      78 ->  93        0.15737
      79 ->  90       -0.11527
      79 ->  91       -0.22526
      79 ->  92        0.27788
      79 ->  93       -0.13367
      79 ->  97       -0.10950
      80 ->  91        0.12684
      80 ->  92       -0.16502
      89 ->  92       -0.25549

 Excited State   4:      Singlet-A      5.8721 eV  211.14 nm  f=0.0027  <S**2>=0.000
      76 ->  90       -0.32788
      77 ->  92       -0.15930
      77 ->  93       -0.29755
      79 ->  90        0.15174
      80 ->  90        0.18769
      89 ->  92        0.13165
      89 ->  93        0.25596

 Excited State   5:      Singlet-A      6.0670 eV  204.36 nm  f=0.1567  <S**2>=0.000
      76 ->  92        0.11147
      76 ->  93        0.22598
      77 ->  90        0.31038
      77 ->  92        0.10206
      78 ->  90        0.12341
      80 ->  93       -0.14216
      84 ->  93        0.10199
      87 ->  90        0.12479
      89 ->  90        0.30151
      89 ->  96       -0.11046

 Excited State   6:      Singlet-A      6.2845 eV  197.29 nm  f=0.5137  <S**2>=0.000
      78 ->  91       -0.13605
      81 ->  91       -0.11442
      82 ->  91        0.15294
      86 ->  92        0.12231
      87 ->  92        0.11711
      89 ->  91        0.46221
      89 ->  92       -0.11266
      89 ->  94        0.17184
      89 ->  97       -0.17171

 Excited State   7:      Singlet-A      6.3746 eV  194.50 nm  f=0.1276  <S**2>=0.000
      82 ->  92        0.12229
      86 ->  91        0.17822
      86 ->  92       -0.10307
      87 ->  90        0.11344
      87 ->  91        0.10065
      88 ->  90        0.10378
      89 ->  91        0.10935
      89 ->  92        0.41005
      89 ->  95        0.34730

 Excited State   8:      Singlet-A      6.5378 eV  189.64 nm  f=0.0771  <S**2>=0.000
      81 ->  93       -0.11679
      82 ->  90        0.15951
      84 ->  90        0.42327
      85 ->  90       -0.14790
      85 ->  93        0.11989
      87 ->  93        0.11750
      88 ->  90       -0.13907
      89 ->  93        0.26216

 Excited State   9:      Singlet-A      6.6016 eV  187.81 nm  f=0.1795  <S**2>=0.000
      81 ->  90       -0.10110
      82 ->  93        0.10638
      83 ->  90       -0.16630
      84 ->  92        0.14223
      84 ->  93        0.17093
      85 ->  90        0.23937
      86 ->  91       -0.17041
      87 ->  90        0.15400
      87 ->  92        0.11313
      88 ->  90        0.35748
      89 ->  90       -0.13245
      89 ->  93        0.20220

 Excited State  10:      Singlet-A      6.6906 eV  185.31 nm  f=0.1865  <S**2>=0.000
      84 ->  93       -0.10854
      85 ->  90       -0.15232
      86 ->  90        0.18495
      87 ->  90       -0.33083
      87 ->  91       -0.13544
      88 ->  90        0.37688
      88 ->  91        0.10538
      89 ->  95        0.16551

 The electronic state is 1-A.
 Alpha  occ. eigenvalues --  -19.19458 -19.19451 -19.19086 -19.18904 -14.44877
 Alpha  occ. eigenvalues --  -14.44784 -14.44639 -14.44432 -10.36984 -10.36818
 Alpha  occ. eigenvalues --  -10.36755 -10.36601 -10.29277 -10.29195 -10.29123
 Alpha  occ. eigenvalues --  -10.29044 -10.28622 -10.28001 -10.27856 -10.27830
 Alpha  occ. eigenvalues --   -1.13171  -1.13113  -1.13007  -1.12659  -1.03792
 Alpha  occ. eigenvalues --   -1.03698  -1.03660  -1.03458  -0.81727  -0.81373
 Alpha  occ. eigenvalues --   -0.81348  -0.81241  -0.80143  -0.79303  -0.79275
 Alpha  occ. eigenvalues --   -0.79143  -0.79118  -0.78947  -0.65583  -0.65332
 Alpha  occ. eigenvalues --   -0.65195  -0.65004  -0.60344  -0.59818  -0.59627
 Alpha  occ. eigenvalues --   -0.59431  -0.58978  -0.56713  -0.56618  -0.56019
 Alpha  occ. eigenvalues --   -0.55850  -0.55539  -0.55109  -0.54816  -0.51796
 Alpha  occ. eigenvalues --   -0.49831  -0.49694  -0.49479  -0.48601  -0.48194
 Alpha  occ. eigenvalues --   -0.47991  -0.47870  -0.47648  -0.47535  -0.47344
 Alpha  occ. eigenvalues --   -0.47190  -0.46962  -0.46677  -0.46296  -0.45813
 Alpha  occ. eigenvalues --   -0.45623  -0.45168  -0.45086  -0.44701  -0.44337
 Alpha  occ. eigenvalues --   -0.36586  -0.35980  -0.35553  -0.35484  -0.34516
 Alpha  occ. eigenvalues --   -0.33509  -0.33040  -0.32921  -0.32719  -0.32486
 Alpha  occ. eigenvalues --   -0.31985  -0.31852  -0.31636  -0.28632
 Alpha virt. eigenvalues --    0.02256   0.03356   0.03935   0.04264   0.05647
 Alpha virt. eigenvalues --    0.05775   0.06902   0.07385   0.07734   0.07968
 Alpha virt. eigenvalues --    0.09216   0.10298   0.10827   0.11161   0.11415

 Mulliken charges:
               1
     1  Pb   1.049673
     2  Cl  -0.635929
     3  Cl  -0.627033
     4  O   -0.454687
     5  C    0.155557
     6  H    0.112999
     7  N   -0.021570
     8  C   -0.217128
     9  C   -0.203063
    10  H    0.115132
    11  H    0.111845
    12  H    0.123013
    13  H    0.117293
    14  H    0.125606
    15  H    0.104452
    16  O   -0.454227
    17  C    0.150771
    18  H    0.109107
    19  N   -0.021017
    20  C   -0.228290
    21  C   -0.198073
    22  H    0.114348
    23  H    0.113242
    24  H    0.119311
    25  H    0.112798
    26  H    0.119989
    27  H    0.124616
    28  O   -0.506970
    29  C    0.165430
    30  H    0.109934
    31  N    0.016140
    32  C   -0.199711
    33  C   -0.166535
    34  H    0.108379
    35  H    0.107757
    36  H    0.106019
    37  H    0.112509
    38  H    0.099693
    39  H    0.105381
    40  O   -0.484352
    41  C    0.151052
    42  H    0.114292
    43  N    0.005247
    44  C   -0.236630
    45  C   -0.174468
    46  H    0.108276
    47  H    0.107924
    48  H    0.116146
    49  H    0.129099
    50  H    0.118432
    51  H    0.068220
 Sum of Mulliken charges =  -0.00000

 Dipole moment (field-independent basis, Debye):
    X=            -12.0155    Y=             20.8065    Z=             -2.2226  Tot=             24.1292
 Quadrupole moment (field-independent basis, Debye-Ang):
   XX=            -86.7158   YY=           -148.5309   ZZ=           -176.8622
   XY=             17.9114   XZ=              9.7624   YZ=              5.9797

 Normal termination of Gaussian 16 at Wed Nov 11 22:30:34 2020.
