 Gaussian 16, Revision C.01,
 Gaussian 16:  ES64L-G16RevC.01  3-Jul-2019

 ----------------------------------------------------------------------
 # cam-b3lyp/gen pseudo=read TD=NStates=10 Geom=Check Guess=Read empiri
 caldispersion=gd3bj SCRF=(Solvent=DMSO)
 ----------------------------------------------------------------------

 ----------
 PbCl2_dmso
 ----------
 Structure from the checkpoint file:  "02-PbCl2_dmso.chk"
 Charge =  0 Multiplicity = 1

                         Standard orientation:
 ---------------------------------------------------------------------
 Center     Atomic      Atomic             Coordinates (Angstroms)
 Number     Number       Type             X           Y           Z
 ---------------------------------------------------------------------
      1         82           0        0.121724   -0.331708   -0.286055
      2         17           0        1.253464    2.150152   -1.579044
      3         17           0        0.272076   -2.189393   -2.425449
      4          8           0       -0.622313    1.178332    1.630027
      5         16           0        0.252801    2.177575    2.482593
      6          6           0        0.149390    3.793451    1.629828
      7          6           0        1.995284    1.816303    2.060190
      8          1           0       -0.900404    4.129689    1.709308
      9          1           0        2.166126    0.751003    2.302488
     10          1           0        0.817527    4.499472    2.159906
     11          1           0        2.642933    2.477466    2.667217
     12          1           0        0.456863    3.644819    0.575336
     13          1           0        2.124180    1.987652    0.972253
     14          8           0       -1.087156   -1.837569    1.129903
     15         16           0       -2.475911   -1.334081    1.718547
     16          6           0       -3.707166   -2.346350    0.836408
     17          6           0       -2.530017   -2.170361    3.335591
     18          1           0       -3.686157   -1.962016   -0.199383
     19          1           0       -1.754991   -1.687449    3.958079
     20          1           0       -4.700970   -2.189217    1.297820
     21          1           0       -3.530677   -2.020660    3.783912
     22          1           0       -3.394307   -3.406113    0.885332
     23          1           0       -2.305202   -3.242971    3.186665
     24          8           0        2.256987   -1.229620    0.880368
     25         16           0        3.659294   -1.514887    0.213942
     26          6           0        4.793884   -0.235026    0.867668
     27          6           0        3.559396   -0.886252   -1.500011
     28          1           0        4.859978   -0.397395    1.958887
     29          1           0        2.818930   -1.524739   -2.022955
     30          1           0        5.784955   -0.383723    0.397734
     31          1           0        4.563640   -0.978785   -1.956192
     32          1           0        4.386904    0.767022    0.637015
     33          1           0        3.206524    0.165825   -1.478604
     34          8           0       -2.227250   -0.081879   -0.928383
     35         16           0       -2.915937    1.115044   -1.707451
     36          6           0       -1.968469    1.274484   -3.259696
     37          6           0       -2.334286    2.636007   -0.886004
     38          1           0       -2.101548    0.319095   -3.799005
     39          1           0       -2.648200    2.547941    0.169373
     40          1           0       -2.398567    2.113189   -3.839943
     41          1           0       -2.823794    3.498033   -1.378252
     42          1           0       -0.903738    1.454322   -3.004808
     43          1           0       -1.229725    2.678638   -0.970532
 ---------------------------------------------------------------------

 SCF Done:  E(RCAM-B3LYP) =  -2246.46026614     A.U. after   11 cycles

 Excitation energies and oscillator strengths:

 Excited State   1:      Singlet-A      5.3709 eV  230.84 nm  f=0.2077  <S**2>=0.000
      88 -> 94        -0.14399
      93 -> 94         0.63920
 This state for optimization and/or second-order correction.
 Total Energy, E(TD-HF/TD-DFT) =  -2246.26288876
 Copying the excited state density for this state as the 1-particle RhoCI density.

 Excited State   2:      Singlet-A      5.5907 eV  221.77 nm  f=0.1055  <S**2>=0.000
      92 -> 95         0.14339
      92 -> 96         0.13317
      93 -> 95         0.59553

 Excited State   3:      Singlet-A      5.7250 eV  216.57 nm  f=0.1179  <S**2>=0.000
      84 -> 96        -0.13117
      85 -> 95        -0.10998
      87 -> 95        -0.13073
      91 -> 94         0.10070
      92 -> 95         0.19964
      93 -> 95        -0.15315
      93 -> 96         0.50623

 Excited State   4:      Singlet-A      5.8987 eV  210.19 nm  f=0.0193  <S**2>=0.000
      84 -> 94         0.14667
      85 -> 94        -0.10912
      86 -> 94        -0.10185
      87 -> 94         0.12619
      87 -> 98        -0.14306
      88 -> 94        -0.24249
      88 -> 95         0.14847
      88 -> 98         0.18013
      91 -> 94         0.25483
      93 -> 94        -0.10512
      93 -> 97         0.10612
      93 -> 98        -0.22964

 Excited State   5:      Singlet-A      6.1304 eV  202.25 nm  f=0.0103  <S**2>=0.000
      84 -> 98         0.14115
      86 -> 95        -0.20329
      86 -> 96         0.17048
      87 -> 94        -0.16114
      88 -> 94         0.23923
      88 -> 95         0.10178
      88 -> 96        -0.11059
      88 -> 98        -0.10670
      92 -> 94         0.12985
      93 -> 94         0.19698
      93 -> 98        -0.16511
      93 -> 99         0.10249
      93 ->100         0.12133

 Excited State   6:      Singlet-A      6.1920 eV  200.23 nm  f=0.0744  <S**2>=0.000
      85 -> 95         0.12449
      87 -> 95         0.10046
      87 -> 96         0.10412
      89 -> 95         0.10984
      92 -> 95        -0.20977
      92 -> 96        -0.19587
      92 -> 97        -0.12523
      93 -> 95         0.23336
      93 -> 96         0.31792
      93 -> 97        -0.13020
      93 -> 99         0.10393

 Excited State   7:      Singlet-A      6.3365 eV  195.67 nm  f=0.0932  <S**2>=0.000
      84 -> 95        -0.18548
      84 -> 96         0.13695
      86 -> 94         0.18328
      86 -> 95        -0.14107
      86 -> 98         0.14499
      87 -> 95         0.10418
      87 -> 96        -0.10936
      88 -> 94        -0.18161
      88 -> 98        -0.10260
      90 -> 94        -0.10027
      91 -> 94        -0.15451
      93 -> 95        -0.14689
      93 -> 96         0.23878
      93 ->101        -0.10453
      93 ->106        -0.12585

 Excited State   8:      Singlet-A      6.3725 eV  194.56 nm  f=0.0425  <S**2>=0.000
      88 -> 97        -0.10225
      92 -> 95        -0.11664
      92 -> 96        -0.10437
      92 -> 97         0.14557
      92 ->100         0.12060
      93 -> 97         0.48001
      93 -> 98         0.16860

 Excited State   9:      Singlet-A      6.4439 eV  192.41 nm  f=0.0398  <S**2>=0.000
      87 -> 97        -0.12818
      87 ->100         0.10446
      88 -> 94        -0.14311
      88 -> 97         0.12545
      88 ->100        -0.23993
      91 ->100         0.15775
      92 -> 97         0.13770
      93 -> 98         0.13943
      93 ->100         0.39738

 Excited State  10:      Singlet-A      6.5228 eV  190.08 nm  f=0.0064  <S**2>=0.000
      84 -> 99        -0.12306
      86 -> 99         0.10724
      91 -> 99        -0.11625
      92 -> 97        -0.11046
      93 -> 97         0.10265
      93 -> 99         0.47156
      93 ->102         0.15276

 The electronic state is 1-A.
 Alpha  occ. eigenvalues --  -89.08342 -89.07959 -89.07927 -89.07845 -19.19004
 Alpha  occ. eigenvalues --  -19.18579 -19.18104 -19.18042 -10.28559 -10.28520
 Alpha  occ. eigenvalues --  -10.28296 -10.28152 -10.28077 -10.28057 -10.27791
 Alpha  occ. eigenvalues --  -10.27672  -8.12279  -8.11893  -8.11828  -8.11757
 Alpha  occ. eigenvalues --   -6.08781  -6.08615  -6.08383  -6.08310  -6.08242
 Alpha  occ. eigenvalues --   -6.08238  -6.08185  -6.08107  -6.08071  -6.07672
 Alpha  occ. eigenvalues --   -6.07629  -6.07558  -1.09289  -1.08578  -1.08302
 Alpha  occ. eigenvalues --   -1.08260  -0.88677  -0.88425  -0.88148  -0.88125
 Alpha  occ. eigenvalues --   -0.80119  -0.80079  -0.79927  -0.79571  -0.78365
 Alpha  occ. eigenvalues --   -0.77923  -0.69751  -0.69308  -0.69112  -0.68521
 Alpha  occ. eigenvalues --   -0.57545  -0.54753  -0.54051  -0.53944  -0.53818
 Alpha  occ. eigenvalues --   -0.53532  -0.53287  -0.53177  -0.52715  -0.52490
 Alpha  occ. eigenvalues --   -0.52265  -0.52098  -0.51657  -0.49301  -0.49114
 Alpha  occ. eigenvalues --   -0.49017  -0.48788  -0.48393  -0.48086  -0.47588
 Alpha  occ. eigenvalues --   -0.45881  -0.45761  -0.45604  -0.45418  -0.44932
 Alpha  occ. eigenvalues --   -0.43808  -0.43253  -0.42982  -0.41917  -0.36547
 Alpha  occ. eigenvalues --   -0.36533  -0.36221  -0.35552  -0.33740  -0.33614
 Alpha  occ. eigenvalues --   -0.33056  -0.32237  -0.31854  -0.31184  -0.30995
 Alpha  occ. eigenvalues --   -0.30941  -0.30711  -0.26602
 Alpha virt. eigenvalues --    0.03065   0.03828   0.04559   0.05760   0.06305
 Alpha virt. eigenvalues --    0.06348   0.06673   0.07247   0.07682   0.08381
 Alpha virt. eigenvalues --    0.08793   0.09279   0.09748   0.10266   0.10508

 Mulliken charges:
               1
     1  Pb   1.128267
     2  Cl  -0.592787
     3  Cl  -0.666890
     4  O   -0.663606
     5  S    0.557619
     6  C   -0.293799
     7  C   -0.328505
     8  H    0.132582
     9  H    0.135575
    10  H    0.140503
    11  H    0.140384
    12  H    0.105622
    13  H    0.084050
    14  O   -0.693298
    15  S    0.590369
    16  C   -0.276091
    17  C   -0.274411
    18  H    0.134273
    19  H    0.131556
    20  H    0.126025
    21  H    0.125602
    22  H    0.120806
    23  H    0.121180
    24  O   -0.665077
    25  S    0.556792
    26  C   -0.301858
    27  C   -0.307473
    28  H    0.136367
    29  H    0.088659
    30  H    0.142237
    31  H    0.140268
    32  H    0.131887
    33  H    0.087667
    34  O   -0.677350
    35  S    0.561285
    36  C   -0.268596
    37  C   -0.273402
    38  H    0.122853
    39  H    0.129392
    40  H    0.131228
    41  H    0.139142
    42  H    0.078308
    43  H    0.062643
 Sum of Mulliken charges =  -0.00000

 Dipole moment (field-independent basis, Debye):
    X=             -3.5673    Y=              7.7324    Z=             12.0656  Tot=             14.7680
 Quadrupole moment (field-independent basis, Debye-Ang):
   XX=           -101.3233   YY=           -166.3968   ZZ=           -162.5100
   XY=             -1.3693   XZ=              7.0237   YZ=             -8.9531

 Normal termination of Gaussian 16 at Wed Nov 11 20:55:13 2020.
