 Gaussian 16, Revision C.01,
 Gaussian 16:  ES64L-G16RevC.01  3-Jul-2019

 ----------------------------------------------------------------------
 # cam-b3lyp/gen pseudo=read TD=NStates=10 Geom=Check Guess=Read empiri
 caldispersion=gd3bj SCRF=(read)
 ----------------------------------------------------------------------

 ---------
 PbCl2_gbl
 ---------
 Structure from the checkpoint file:  "02-PbCl2_gbl.chk"
 Charge =  0 Multiplicity = 1

                         Standard orientation:
 ---------------------------------------------------------------------
 Center     Atomic      Atomic             Coordinates (Angstroms)
 Number     Number       Type             X           Y           Z
 ---------------------------------------------------------------------
      1         82           0       -0.011131   -0.628633    0.146385
      2         17           0        1.448892    1.125776    1.666527
      3         17           0       -1.548661   -1.363445    2.228796
      4          8           0        1.383578    0.615038   -1.943385
      5          6           0        1.864903    1.732325   -1.758618
      6          6           0        1.166176    3.036351   -1.439155
      7          8           0        3.208395    1.916710   -1.802117
      8          6           0        2.231972    4.087685   -1.758818
      9          6           0        3.522202    3.310465   -1.478226
     10          1           0        4.385732    3.602836   -2.101686
     11          1           0        3.809505    3.340713   -0.407075
     12          1           0        2.156409    5.002077   -1.142776
     13          1           0        2.183865    4.379115   -2.826887
     14          1           0        0.944451    2.991557   -0.350273
     15          1           0        0.207644    3.123636   -1.979191
     16          8           0       -1.769242   -2.100453   -1.390430
     17          6           0       -2.996084   -2.061111   -1.307186
     18          6           0       -3.878527   -1.002840   -0.680565
     19          8           0       -3.746902   -3.072257   -1.807802
     20          6           0       -5.267570   -1.325053   -1.238533
     21          6           0       -5.161039   -2.829204   -1.514740
     22          1           0       -5.738169   -3.179117   -2.389218
     23          1           0       -5.424461   -3.444990   -0.630297
     24          1           0       -6.093768   -1.089901   -0.543379
     25          1           0       -5.439988   -0.774187   -2.184178
     26          1           0       -3.802390   -1.138318    0.420828
     27          1           0       -3.488970    0.004858   -0.911232
     28          8           0       -1.524616    1.387011   -0.360339
     29          6           0       -1.866727    2.296588    0.407197
     30          6           0       -1.928863    2.308324    1.912954
     31          8           0       -2.233898    3.487353   -0.103593
     32          6           0       -2.798502    3.532934    2.213079
     33          6           0       -2.534311    4.419620    0.991966
     34          1           0       -3.394256    5.030365    0.665385
     35          1           0       -1.643849    5.068662    1.115922
     36          1           0       -2.536529    4.042908    3.157498
     37          1           0       -3.867982    3.246864    2.254820
     38          1           0       -0.877945    2.415939    2.264208
     39          1           0       -2.290711    1.335372    2.294170
     40          8           0        1.798433   -2.384449    0.839257
     41          6           0        2.998974   -2.237967    0.587404
     42          6           0        3.693144   -1.124557   -0.163171
     43          8           0        3.889777   -3.151998    1.024915
     44          6           0        5.071993   -1.717128   -0.467951
     45          6           0        5.248352   -2.723020    0.673962
     46          1           0        5.813362   -3.633478    0.406651
     47          1           0        5.691132   -2.266883    1.582767
     48          1           0        5.882951   -0.967010   -0.488947
     49          1           0        5.057487   -2.243488   -1.442633
     50          1           0        3.731151   -0.251262    0.524338
     51          1           0        3.103377   -0.804104   -1.042540
 ---------------------------------------------------------------------

 SCF Done:  E(RCAM-B3LYP) =  -1259.46838370     A.U. after   11 cycles

 Excitation energies and oscillator strengths:

 Excited State   1:      Singlet-A      5.7823 eV  214.42 nm  f=0.0291  <S**2>=0.000
      93 -> 104       -0.11545
      94 -> 105        0.12297
      95 -> 103        0.35937
      95 -> 104       -0.25144
      95 -> 105        0.18694
      95 -> 106        0.18451
      95 -> 109        0.14465
     101 -> 103        0.28258
 This state for optimization and/or second-order correction.
 Total Energy, E(TD-HF/TD-DFT) =  -1259.25588953
 Copying the excited state density for this state as the 1-particle RhoCI density.

 Excited State   2:      Singlet-A      5.7871 eV  214.24 nm  f=0.0395  <S**2>=0.000
      91 -> 104        0.13862
      93 -> 102       -0.13779
      93 -> 105        0.18207
      94 -> 102       -0.14348
      94 -> 104       -0.13540
      94 -> 106       -0.12809
     101 -> 102        0.41017
     101 -> 104        0.19628

 Excited State   3:      Singlet-A      5.8283 eV  212.73 nm  f=0.0013  <S**2>=0.000
      93 -> 104        0.14980
      93 -> 106        0.12542
      94 -> 103        0.12976
      94 -> 105       -0.24033
      95 -> 103        0.20810
      95 -> 104       -0.16760
      96 -> 104       -0.12584
     101 -> 103       -0.18799
     101 -> 104       -0.11593
     101 -> 105        0.26118

 Excited State   4:      Singlet-A      5.8785 eV  210.91 nm  f=0.0093  <S**2>=0.000
      88 -> 102       -0.12184
      89 -> 102        0.12751
      90 -> 102        0.10325
      91 -> 102        0.23110
      93 -> 102        0.24607
      93 -> 103       -0.15073
      93 -> 104       -0.17264
      94 -> 104       -0.16117
      94 -> 105       -0.11984
      98 -> 102       -0.12559
     101 -> 102       -0.20604
     101 -> 103        0.12379
     101 -> 104        0.23696
     101 -> 105        0.10104

 Excited State   5:      Singlet-A      6.2279 eV  199.08 nm  f=0.1762  <S**2>=0.000
      91 -> 104       -0.10067
      93 -> 102        0.14598
      93 -> 105       -0.11326
      94 -> 102        0.11963
     101 -> 102        0.39453
     101 -> 103        0.18358
     101 -> 105        0.24184
     101 -> 106       -0.32727

 Excited State   6:      Singlet-A      6.3496 eV  195.26 nm  f=0.1905  <S**2>=0.000
      93 -> 104        0.12788
      95 -> 103       -0.10183
     100 -> 103        0.15130
     101 -> 102       -0.19700
     101 -> 103        0.49273
     101 -> 109       -0.12967

 Excited State   7:      Singlet-A      6.5540 eV  189.17 nm  f=0.0778  <S**2>=0.000
      97 -> 102        0.12028
      99 -> 102        0.16701
     100 -> 102       -0.30718
     100 -> 103       -0.18248
     100 -> 106        0.10177
     101 -> 103        0.13590
     101 -> 104        0.18401
     101 -> 105       -0.21035
     101 -> 106        0.11015
     101 -> 107        0.35229

 Excited State   8:      Singlet-A      6.6378 eV  186.78 nm  f=0.0746  <S**2>=0.000
      99 -> 102        0.40693
      99 -> 103        0.19536
      99 -> 106       -0.13944
      99 -> 107        0.10098
     100 -> 102        0.25188
     100 -> 103        0.27692
     100 -> 106       -0.12599
     101 -> 105       -0.12379

 Excited State   9:      Singlet-A      6.6719 eV  185.83 nm  f=0.0204  <S**2>=0.000
      99 -> 103       -0.11496
     100 -> 102        0.46397
     100 -> 103       -0.37016
     100 -> 109        0.15936
     101 -> 107        0.14611

 Excited State  10:      Singlet-A      6.6895 eV  185.34 nm  f=0.1183  <S**2>=0.000
      98 -> 102       -0.15731
      99 -> 102       -0.25820
      99 -> 103       -0.20004
      99 -> 107       -0.12089
     100 -> 103        0.30749
     101 -> 102        0.19003
     101 -> 104       -0.15538
     101 -> 105       -0.23925
     101 -> 106        0.15397
     101 -> 107        0.19562

 The electronic state is 1-A.
 Alpha  occ. eigenvalues --  -19.26956 -19.26534 -19.26108 -19.26074 -19.22181
 Alpha  occ. eigenvalues --  -19.21726 -19.20962 -19.20841 -10.41169 -10.40790
 Alpha  occ. eigenvalues --  -10.40191 -10.40168 -10.32187 -10.31995 -10.31804
 Alpha  occ. eigenvalues --  -10.31802 -10.27293 -10.27263 -10.27160 -10.27155
 Alpha  occ. eigenvalues --  -10.26941 -10.26837 -10.26726 -10.26716  -1.20844
 Alpha  occ. eigenvalues --   -1.20410  -1.19810  -1.19783  -1.12435  -1.12077
 Alpha  occ. eigenvalues --   -1.11547  -1.11508  -0.89642  -0.89496  -0.89284
 Alpha  occ. eigenvalues --   -0.89237  -0.82166  -0.81905  -0.81595  -0.81552
 Alpha  occ. eigenvalues --   -0.81317  -0.80436  -0.71204  -0.71032  -0.70728
 Alpha  occ. eigenvalues --   -0.70658  -0.65127  -0.64774  -0.64254  -0.64156
 Alpha  occ. eigenvalues --   -0.60689  -0.60108  -0.59915  -0.59554  -0.59466
 Alpha  occ. eigenvalues --   -0.59143  -0.58630  -0.58321  -0.55719  -0.54913
 Alpha  occ. eigenvalues --   -0.54250  -0.54130  -0.53803  -0.51435  -0.50925
 Alpha  occ. eigenvalues --   -0.50855  -0.50515  -0.50370  -0.50108  -0.50085
 Alpha  occ. eigenvalues --   -0.49700  -0.49095  -0.48407  -0.48060  -0.46888
 Alpha  occ. eigenvalues --   -0.45353  -0.45136  -0.44702  -0.44487  -0.43722
 Alpha  occ. eigenvalues --   -0.43438  -0.43304  -0.43169  -0.42044  -0.41778
 Alpha  occ. eigenvalues --   -0.41702  -0.41287  -0.38772  -0.38445  -0.38231
 Alpha  occ. eigenvalues --   -0.37950  -0.37913  -0.37058  -0.36882  -0.36161
 Alpha  occ. eigenvalues --   -0.35402  -0.33962  -0.33490  -0.32991  -0.32563
 Alpha  occ. eigenvalues --   -0.30380
 Alpha virt. eigenvalues --    0.01585   0.01903   0.02652   0.03207   0.04408
 Alpha virt. eigenvalues --    0.05101   0.06416   0.06966   0.07425   0.07836
 Alpha virt. eigenvalues --    0.08443   0.10121   0.10349   0.10972   0.11005

 Mulliken charges:
               1
     1  Pb   1.116417
     2  Cl  -0.597891
     3  Cl  -0.599295
     4  O   -0.403217
     5  C    0.326087
     6  C   -0.177295
     7  O   -0.220386
     8  C   -0.186794
     9  C    0.009816
    10  H    0.114824
    11  H    0.101499
    12  H    0.118565
    13  H    0.114661
    14  H    0.089311
    15  H    0.132119
    16  O   -0.402249
    17  C    0.344960
    18  C   -0.247657
    19  O   -0.217231
    20  C   -0.182248
    21  C    0.008342
    22  H    0.113978
    23  H    0.107965
    24  H    0.118465
    25  H    0.114833
    26  H    0.116626
    27  H    0.144803
    28  O   -0.450622
    29  C    0.385056
    30  C   -0.204350
    31  O   -0.215264
    32  C   -0.186741
    33  C    0.005371
    34  H    0.119458
    35  H    0.113067
    36  H    0.121166
    37  H    0.116191
    38  H    0.112025
    39  H    0.105811
    40  O   -0.423575
    41  C    0.368210
    42  C   -0.265376
    43  O   -0.210092
    44  C   -0.179135
    45  C    0.006778
    46  H    0.116402
    47  H    0.110933
    48  H    0.119660
    49  H    0.116301
    50  H    0.127760
    51  H    0.131960
 Sum of Mulliken charges =  -0.00000

 Dipole moment (field-independent basis, Debye):
    X=             -0.6760    Y=             10.7828    Z=             -6.2560  Tot=             12.4845
 Quadrupole moment (field-independent basis, Debye-Ang):
   XX=            -96.1068   YY=           -150.5153   ZZ=           -200.4637
   XY=             -9.2621   XZ=             -4.0760   YZ=              9.7456

 Normal termination of Gaussian 16 at Wed Nov 11 21:42:56 2020.
