 Gaussian 16, Revision C.01,
 Gaussian 16:  ES64L-G16RevC.01  3-Jul-2019

 ----------------------------------------------------------------------
 # cam-b3lyp/gen pseudo=read TD=NStates=10 Geom=Check Guess=Read empiri
 caldispersion=gd3bj SCRF=(read)
 ----------------------------------------------------------------------

 ---------
 PbCl2_nmp
 ---------
 Structure from the checkpoint file:  "02-PbCl2_nmp.chk"
 Charge =  0 Multiplicity = 1

                         Standard orientation:
 ---------------------------------------------------------------------
 Center     Atomic      Atomic             Coordinates (Angstroms)
 Number     Number       Type             X           Y           Z
 ---------------------------------------------------------------------
      1         82           0        0.114793   -0.933079   -0.458390
      2         17           0       -0.225719   -3.282383   -1.847999
      3         17           0       -0.135585   -1.929520    2.129459
      4          8           0        0.039686    0.759341   -2.527723
      5          6           0        0.287208    1.972756   -2.337828
      6          6           0        1.657880    2.627261   -2.295775
      7          7           0       -0.649413    2.927302   -2.087062
      8          6           0        1.359568    4.132519   -2.373294
      9          6           0       -0.085382    4.254767   -1.846636
     10          6           0       -2.056259    2.642392   -1.897879
     11          1           0       -2.191187    1.545715   -1.867398
     12          1           0       -2.403861    3.076408   -0.937001
     13          1           0       -2.667656    3.080087   -2.714578
     14          1           0        2.105020    2.331120   -1.322713
     15          1           0        2.307280    2.241911   -3.103204
     16          1           0        2.063708    4.751842   -1.788090
     17          1           0        1.400240    4.473231   -3.426597
     18          1           0       -0.676544    5.029125   -2.375864
     19          1           0       -0.126237    4.483015   -0.757531
     20          8           0        0.868995    1.487632    0.661812
     21          6           0        0.041879    2.153437    1.329772
     22          6           0       -1.342136    1.712823    1.769641
     23          7           0        0.270717    3.405806    1.810356
     24          6           0       -2.007267    3.006626    2.260093
     25          6           0       -0.820374    3.910272    2.647015
     26          6           0        1.552722    4.074986    1.731167
     27          1           0        2.221946    3.465785    1.096955
     28          1           0        2.001740    4.182481    2.741101
     29          1           0        1.439827    5.085224    1.287672
     30          1           0       -1.201886    0.956278    2.572063
     31          1           0       -1.870279    1.199557    0.943764
     32          1           0       -2.704420    2.853300    3.103421
     33          1           0       -2.575334    3.476757    1.431754
     34          1           0       -1.000318    4.983499    2.437832
     35          1           0       -0.545851    3.813359    3.721752
     36          8           0       -2.473783   -0.464122   -0.465916
     37          6           0       -3.362918   -1.209164    0.022857
     38          6           0       -3.251786   -2.687606    0.335699
     39          7           0       -4.593918   -0.776239    0.393775
     40          6           0       -4.703619   -3.120956    0.586213
     41          6           0       -5.405471   -1.820541    1.023352
     42          6           0       -4.999216    0.613764    0.378154
     43          1           0       -4.233257    1.192107   -0.168743
     44          1           0       -5.088560    1.011256    1.411621
     45          1           0       -5.979234    0.724622   -0.127767
     46          1           0       -2.604567   -2.769011    1.237288
     47          1           0       -2.725370   -3.220446   -0.478783
     48          1           0       -4.801609   -3.918424    1.344790
     49          1           0       -5.157443   -3.486789   -0.356214
     50          1           0       -6.456345   -1.750671    0.678684
     51          1           0       -5.399480   -1.684251    2.128489
     52          8           0        2.593512   -1.424440   -0.554621
     53          6           0        3.444371   -1.209744    0.349040
     54          6           0        3.230355   -0.513490    1.678337
     55          7           0        4.734817   -1.617228    0.271100
     56          6           0        4.654915   -0.262893    2.196371
     57          6           0        5.505778   -1.331393    1.482572
     58          6           0        5.257425   -2.429618   -0.807822
     59          1           0        4.463170   -2.539644   -1.567940
     60          1           0        5.552514   -3.432601   -0.434040
     61          1           0        6.146992   -1.947871   -1.261882
     62          1           0        2.638151   -1.204129    2.317380
     63          1           0        2.613788    0.394426    1.539512
     64          1           0        4.742401   -0.331604    3.295694
     65          1           0        4.995013    0.746068    1.888946
     66          1           0        6.521678   -0.977444    1.216301
     67          1           0        5.616329   -2.261435    2.084577
 ---------------------------------------------------------------------

 SCF Done:  E(RCAM-B3LYP) =  -1337.20720515     A.U. after   11 cycles

 Excitation energies and oscillator strengths:

 Excited State   1:      Singlet-A      5.8175 eV  213.12 nm  f=0.1182  <S**2>=0.000
     104 -> 119       -0.10649
     105 -> 119        0.10771
     106 -> 118        0.12465
     106 -> 121        0.13581
     117 -> 118        0.55793
     117 -> 119        0.10805
     117 -> 121        0.12198
 This state for optimization and/or second-order correction.
 Total Energy, E(TD-HF/TD-DFT) =  -1336.99341777
 Copying the excited state density for this state as the 1-particle RhoCI density.

 Excited State   2:      Singlet-A      5.8304 eV  212.65 nm  f=0.0961  <S**2>=0.000
     104 -> 120       -0.12530
     105 -> 120       -0.24336
     107 -> 120        0.20757
     109 -> 120       -0.16076
     117 -> 118       -0.16818
     117 -> 119        0.35835
     117 -> 120       -0.28512

 Excited State   3:      Singlet-A      5.9126 eV  209.69 nm  f=0.0269  <S**2>=0.000
     104 -> 118       -0.12109
     104 -> 121       -0.12979
     105 -> 120        0.14502
     105 -> 121        0.11072
     106 -> 119        0.25159
     106 -> 124       -0.12020
     107 -> 120       -0.11796
     108 -> 118       -0.10763
     109 -> 120        0.11196
     117 -> 119        0.31775
     117 -> 120        0.29499

 Excited State   4:      Singlet-A      5.9407 eV  208.70 nm  f=0.0017  <S**2>=0.000
     108 -> 118       -0.45719
     108 -> 121        0.36982
     108 -> 128        0.16987
     108 -> 129       -0.13433

 Excited State   5:      Singlet-A      6.1128 eV  202.83 nm  f=0.1659  <S**2>=0.000
     104 -> 119       -0.14544
     104 -> 121        0.14151
     106 -> 118        0.15372
     106 -> 121        0.19020
     117 -> 118       -0.28988
     117 -> 121        0.36855
     117 -> 124       -0.11382

 Excited State   6:      Singlet-A      6.2051 eV  199.81 nm  f=0.5062  <S**2>=0.000
     106 -> 119       -0.12341
     117 -> 119        0.26915
     117 -> 121        0.15903
     117 -> 122       -0.16910
     117 -> 123        0.40210
     117 -> 124        0.18398

 Excited State   7:      Singlet-A      6.4155 eV  193.26 nm  f=0.3853  <S**2>=0.000
     106 -> 119        0.15174
     113 -> 120        0.11052
     117 -> 119       -0.26718
     117 -> 120       -0.14150
     117 -> 123        0.36302
     117 -> 125       -0.31820

 Excited State   8:      Singlet-A      6.6616 eV  186.12 nm  f=0.1119  <S**2>=0.000
     111 -> 120       -0.10072
     112 -> 119       -0.11817
     112 -> 120        0.15987
     113 -> 118       -0.16216
     113 -> 120        0.18541
     115 -> 119        0.20314
     115 -> 120       -0.15916
     116 -> 118       -0.17839
     116 -> 119       -0.18071
     117 -> 120        0.19685
     117 -> 121        0.12757
     117 -> 122        0.10848
     117 -> 123       -0.14176

 Excited State   9:      Singlet-A      6.7005 eV  185.04 nm  f=0.1209  <S**2>=0.000
     110 -> 119       -0.12722
     111 -> 119        0.14227
     112 -> 118        0.15662
     113 -> 118       -0.20796
     115 -> 118       -0.10269
     116 -> 118        0.16132
     116 -> 119        0.29273
     117 -> 120        0.16837
     117 -> 124        0.15081
     117 -> 126       -0.10981

 Excited State  10:      Singlet-A      6.7444 eV  183.83 nm  f=0.4853  <S**2>=0.000
     109 -> 121        0.13781
     110 -> 120        0.11844
     111 -> 121       -0.12772
     114 -> 118        0.31550
     114 -> 119       -0.19362
     114 -> 121        0.23366
     115 -> 120       -0.10569
     116 -> 118        0.24096
     116 -> 121        0.10578
     117 -> 119        0.10662

 The electronic state is 1-A.
 Alpha  occ. eigenvalues --  -19.19132 -19.18839 -19.18728 -19.18107 -14.43640
 Alpha  occ. eigenvalues --  -14.43605 -14.43574 -14.43225 -10.36723 -10.36595
 Alpha  occ. eigenvalues --  -10.36558 -10.36156 -10.29382 -10.29238 -10.29217
 Alpha  occ. eigenvalues --  -10.29169 -10.28567 -10.28492 -10.28314 -10.28042
 Alpha  occ. eigenvalues --  -10.26224 -10.26010 -10.25978 -10.25963 -10.25913
 Alpha  occ. eigenvalues --  -10.25896 -10.25633 -10.25548  -1.13030  -1.12883
 Alpha  occ. eigenvalues --   -1.12802  -1.12286  -1.04014  -1.03988  -1.03939
 Alpha  occ. eigenvalues --   -1.03605  -0.88959  -0.88699  -0.88674  -0.88536
 Alpha  occ. eigenvalues --   -0.80388  -0.80296  -0.80214  -0.80078  -0.79528
 Alpha  occ. eigenvalues --   -0.78832  -0.78079  -0.77837  -0.77795  -0.77607
 Alpha  occ. eigenvalues --   -0.69329  -0.69175  -0.69056  -0.68942  -0.62088
 Alpha  occ. eigenvalues --   -0.61706  -0.61616  -0.61342  -0.59304  -0.58538
 Alpha  occ. eigenvalues --   -0.58177  -0.58110  -0.57773  -0.57575  -0.57544
 Alpha  occ. eigenvalues --   -0.56913  -0.54588  -0.53905  -0.53604  -0.53230
 Alpha  occ. eigenvalues --   -0.52684  -0.51385  -0.50908  -0.50735  -0.50624
 Alpha  occ. eigenvalues --   -0.49500  -0.49417  -0.49279  -0.48624  -0.48312
 Alpha  occ. eigenvalues --   -0.48099  -0.47681  -0.47534  -0.47290  -0.47133
 Alpha  occ. eigenvalues --   -0.46963  -0.45662  -0.45596  -0.45180  -0.45000
 Alpha  occ. eigenvalues --   -0.44872  -0.44766  -0.44722  -0.44438  -0.43953
 Alpha  occ. eigenvalues --   -0.42452  -0.42326  -0.42248  -0.42173  -0.40448
 Alpha  occ. eigenvalues --   -0.40239  -0.40078  -0.39470  -0.36008  -0.35434
 Alpha  occ. eigenvalues --   -0.34414  -0.34168  -0.33836  -0.32653  -0.32347
 Alpha  occ. eigenvalues --   -0.32203  -0.31980  -0.31898  -0.31605  -0.31434
 Alpha  occ. eigenvalues --   -0.31219  -0.27763
 Alpha virt. eigenvalues --    0.03581   0.04072   0.04823   0.05177   0.05639
 Alpha virt. eigenvalues --    0.05793   0.06718   0.07161   0.07240   0.07798
 Alpha virt. eigenvalues --    0.08506   0.08612   0.09414   0.09796   0.10205

 Mulliken charges:
               1
     1  Pb   1.070407
     2  Cl  -0.635553
     3  Cl  -0.620015
     4  O   -0.482238
     5  C    0.215508
     6  C   -0.180676
     7  N   -0.013786
     8  C   -0.194031
     9  C   -0.110928
    10  C   -0.233259
    11  H    0.120364
    12  H    0.108242
    13  H    0.122277
    14  H    0.122675
    15  H    0.122399
    16  H    0.114151
    17  H    0.112741
    18  H    0.115958
    19  H    0.106683
    20  O   -0.488415
    21  C    0.255002
    22  C   -0.190684
    23  N   -0.036098
    24  C   -0.198408
    25  C   -0.090872
    26  C   -0.233031
    27  H    0.129013
    28  H    0.122790
    29  H    0.118953
    30  H    0.102900
    31  H    0.108344
    32  H    0.120839
    33  H    0.114666
    34  H    0.113337
    35  H    0.111274
    36  O   -0.502026
    37  C    0.273793
    38  C   -0.185495
    39  N   -0.031249
    40  C   -0.189904
    41  C   -0.078974
    42  C   -0.221050
    43  H    0.126109
    44  H    0.114210
    45  H    0.118529
    46  H    0.085131
    47  H    0.088484
    48  H    0.112307
    49  H    0.107961
    50  H    0.109280
    51  H    0.102652
    52  O   -0.516398
    53  C    0.291777
    54  C   -0.232858
    55  N   -0.035519
    56  C   -0.185201
    57  C   -0.082420
    58  C   -0.199656
    59  H    0.115041
    60  H    0.108820
    61  H    0.111491
    62  H    0.095088
    63  H    0.144566
    64  H    0.113042
    65  H    0.108013
    66  H    0.109239
    67  H    0.104690
 Sum of Mulliken charges =  -0.00000

 Dipole moment (field-independent basis, Debye):
    X=             -0.3078    Y=             20.2979    Z=              6.6374  Tot=             21.3578
 Quadrupole moment (field-independent basis, Debye-Ang):
   XX=           -119.7064   YY=           -196.1655   ZZ=           -220.4701
   XY=             -4.8131   XZ=             -1.6466   YZ=             -7.3026

 Normal termination of Gaussian 16 at Sun Nov 22 17:45:42 2020.
