 Gaussian 16, Revision C.01,
 Gaussian 16:  ES64L-G16RevC.01  3-Jul-2019

 ----------------------------------------------------------------------
 # cam-b3lyp/gen pseudo=read TD=NStates=10 Geom=Check Guess=Read empiri
 caldispersion=gd3bj SCRF=(read)
 ----------------------------------------------------------------------

 --------
 PbCl2_PC
 --------
 Structure from the checkpoint file:  "02-PbCl2_PC.chk"
 Charge =  0 Multiplicity = 1

                         Standard orientation:
 ---------------------------------------------------------------------
 Center     Atomic      Atomic             Coordinates (Angstroms)
 Number     Number       Type             X           Y           Z
 ---------------------------------------------------------------------
      1         82           0       -0.172973   -0.188512   -0.286917
      2         17           0       -1.813056    0.170014    1.805150
      3         17           0        0.402541   -2.662985    0.581152
      4          8           0       -0.196986    2.635570   -0.008859
      5          6           0       -1.317447    3.080648   -0.207363
      6          8           0       -2.212488    2.520772   -1.052390
      7          8           0       -1.800758    4.192320    0.390070
      8          6           0       -3.510501    3.188831   -0.878721
      9          6           0       -3.093904    4.503680   -0.195641
     10          6           0       -4.432220    2.308687   -0.056638
     11          1           0       -2.958703    5.340159   -0.908414
     12          1           0       -3.775986    4.804607    0.619454
     13          1           0       -4.013102    2.143457    0.955766
     14          1           0       -4.567459    1.322380   -0.538617
     15          1           0       -5.421820    2.799140    0.034792
     16          1           0       -3.905391    3.362251   -1.896646
     17          8           0        2.125037   -0.826916   -1.916178
     18          6           0        3.053209   -1.426038   -1.398301
     19          8           0        3.926129   -0.865626   -0.522341
     20          8           0        3.343267   -2.723881   -1.638312
     21          6           0        4.744789   -1.926935    0.077544
     22          6           0        4.566260   -3.070233   -0.937206
     23          6           0        4.235264   -2.223480    1.475952
     24          1           0        5.387354   -3.125511   -1.677996
     25          1           0        4.419562   -4.054967   -0.458162
     26          1           0        3.190885   -2.594630    1.439321
     27          1           0        4.266673   -1.307905    2.097140
     28          1           0        4.878794   -2.992212    1.948161
     29          1           0        5.782952   -1.546794    0.089110
     30          8           0       -2.414040   -1.072866   -1.510280
     31          6           0       -3.248739   -1.697820   -0.865473
     32          8           0       -3.075732   -2.955750   -0.422197
     33          8           0       -4.457891   -1.193792   -0.533981
     34          6           0       -4.173033   -3.290747    0.497201
     35          6           0       -5.228932   -2.231298    0.130830
     36          6           0       -3.664112   -3.221262    1.924760
     37          1           0       -5.991404   -2.602957   -0.580310
     38          1           0       -5.717330   -1.781201    1.013660
     39          1           0       -3.333086   -2.191733    2.170572
     40          1           0       -2.807533   -3.908797    2.060842
     41          1           0       -4.472317   -3.522821    2.620347
     42          1           0       -4.502518   -4.309943    0.224038
     43          8           0        1.642180    0.418416    1.316892
     44          6           0        2.563795    1.157038    0.966182
     45          8           0        2.616581    1.788965   -0.210900
     46          8           0        3.626301    1.404831    1.751706
     47          6           0        3.763903    2.707837   -0.206202
     48          6           0        4.592028    2.171261    0.975312
     49          6           0        3.258246    4.128724   -0.048863
     50          1           0        5.398324    1.482057    0.661198
     51          1           0        4.996118    2.967514    1.624919
     52          1           0        2.752609    4.261818    0.928254
     53          1           0        2.541663    4.374482   -0.854988
     54          1           0        4.110311    4.834289   -0.106602
     55          1           0        4.279535    2.556147   -1.171788
 ---------------------------------------------------------------------

 SCF Done:  E(RCAM-B3LYP) =  -1560.42798631     A.U. after   11 cycles

 Excitation energies and oscillator strengths:

 Excited State   1:      Singlet-A      6.3953 eV  193.87 nm  f=0.1646  <S**2>=0.000
     117 -> 118        0.51874
     117 -> 119        0.44671
 This state for optimization and/or second-order correction.
 Total Energy, E(TD-HF/TD-DFT) =  -1560.19296188
 Copying the excited state density for this state as the 1-particle RhoCI density.

 Excited State   2:      Singlet-A      6.4819 eV  191.28 nm  f=0.1606  <S**2>=0.000
     116 -> 119       -0.27797
     116 -> 120        0.16632
     117 -> 118       -0.37607
     117 -> 119        0.44928

 Excited State   3:      Singlet-A      6.6058 eV  187.69 nm  f=0.1248  <S**2>=0.000
     116 -> 119       -0.28707
     116 -> 120        0.21532
     117 -> 118        0.12435
     117 -> 119       -0.19255
     117 -> 120        0.50254

 Excited State   4:      Singlet-A      6.7290 eV  184.25 nm  f=0.0877  <S**2>=0.000
     113 -> 119       -0.10586
     114 -> 118        0.11399
     114 -> 119       -0.18762
     115 -> 119        0.38291
     115 -> 120       -0.25758
     116 -> 118        0.17518
     116 -> 119       -0.30268
     117 -> 120       -0.18942

 Excited State   5:      Singlet-A      6.7525 eV  183.61 nm  f=0.0189  <S**2>=0.000
     113 -> 119       -0.15717
     114 -> 119        0.11370
     115 -> 118        0.13696
     115 -> 119       -0.25802
     115 -> 120        0.20581
     116 -> 118        0.42315
     116 -> 119       -0.14220
     116 -> 120       -0.23752

 Excited State   6:      Singlet-A      6.7856 eV  182.72 nm  f=0.0957  <S**2>=0.000
     114 -> 119       -0.21311
     115 -> 118       -0.28471
     115 -> 119        0.12461
     116 -> 118        0.36764
     116 -> 119        0.27897
     116 -> 120       -0.13776
     117 -> 118       -0.10724
     117 -> 120        0.20467

 Excited State   7:      Singlet-A      6.8332 eV  181.44 nm  f=0.0310  <S**2>=0.000
     114 -> 119        0.27829
     114 -> 120       -0.18914
     115 -> 118        0.19661
     115 -> 120       -0.27491
     116 -> 118        0.28332
     116 -> 119        0.23708
     116 -> 120        0.29205

 Excited State   8:      Singlet-A      6.8668 eV  180.56 nm  f=0.0691  <S**2>=0.000
     113 -> 120       -0.13693
     114 -> 118        0.10076
     114 -> 119       -0.19213
     114 -> 120        0.15578
     115 -> 120        0.35794
     116 -> 118        0.13833
     116 -> 119        0.13150
     116 -> 120        0.37247
     117 -> 120       -0.19976

 Excited State   9:      Singlet-A      6.9826 eV  177.56 nm  f=0.0368  <S**2>=0.000
     102 -> 118       -0.11196
     102 -> 124        0.12175
     103 -> 122        0.12792
     103 -> 123        0.14586
     104 -> 118       -0.12601
     104 -> 124        0.11291
     107 -> 118        0.10285
     112 -> 119       -0.11006
     113 -> 119        0.13198
     115 -> 118        0.34180
     115 -> 119        0.11415
     117 -> 122        0.13721
     117 -> 123        0.14210

 Excited State  10:      Singlet-A      7.0103 eV  176.86 nm  f=0.0065  <S**2>=0.000
     105 -> 119       -0.12893
     105 -> 123        0.10625
     105 -> 126        0.10963
     106 -> 119        0.10593
     106 -> 121        0.11425
     107 -> 119        0.10073
     109 -> 118       -0.11617
     111 -> 118        0.12798
     111 -> 119       -0.14242
     111 -> 121       -0.12275
     111 -> 123        0.12915
     111 -> 126        0.12396
     117 -> 121        0.15302

 The electronic state is 1-A.
 Alpha  occ. eigenvalues --  -19.28360 -19.27921 -19.27794 -19.27572 -19.27459
 Alpha  occ. eigenvalues --  -19.27455 -19.27352 -19.27325 -19.22705 -19.21560
 Alpha  occ. eigenvalues --  -19.21188 -19.21050 -10.46177 -10.45439 -10.45005
 Alpha  occ. eigenvalues --  -10.44976 -10.34227 -10.33792 -10.33720 -10.33709
 Alpha  occ. eigenvalues --  -10.33440 -10.33081 -10.32983 -10.32939 -10.25717
 Alpha  occ. eigenvalues --  -10.25075 -10.25066 -10.24971  -1.26368  -1.25518
 Alpha  occ. eigenvalues --   -1.25236  -1.25096  -1.14940  -1.14321  -1.14207
 Alpha  occ. eigenvalues --   -1.13997  -1.13890  -1.13478  -1.13188  -1.13163
 Alpha  occ. eigenvalues --   -0.89426  -0.88909  -0.88774  -0.88767  -0.81406
 Alpha  occ. eigenvalues --   -0.80391  -0.80256  -0.79838  -0.79725  -0.79711
 Alpha  occ. eigenvalues --   -0.73393  -0.72770  -0.72630  -0.72606  -0.69980
 Alpha  occ. eigenvalues --   -0.69365  -0.69230  -0.69084  -0.62699  -0.62053
 Alpha  occ. eigenvalues --   -0.61571  -0.61552  -0.61255  -0.59800  -0.59549
 Alpha  occ. eigenvalues --   -0.59309  -0.58241  -0.57510  -0.57480  -0.57317
 Alpha  occ. eigenvalues --   -0.57015  -0.54857  -0.54118  -0.53921  -0.53214
 Alpha  occ. eigenvalues --   -0.52986  -0.52615  -0.52428  -0.50563  -0.49948
 Alpha  occ. eigenvalues --   -0.49876  -0.49820  -0.49663  -0.48971  -0.48656
 Alpha  occ. eigenvalues --   -0.48221  -0.47965  -0.47149  -0.46826  -0.46484
 Alpha  occ. eigenvalues --   -0.46333  -0.46045  -0.45787  -0.45548  -0.45523
 Alpha  occ. eigenvalues --   -0.43155  -0.42841  -0.42626  -0.42282  -0.41305
 Alpha  occ. eigenvalues --   -0.40494  -0.39987  -0.39629  -0.39559  -0.39282
 Alpha  occ. eigenvalues --   -0.39182  -0.38813  -0.38617  -0.38585  -0.38484
 Alpha  occ. eigenvalues --   -0.38297  -0.35393  -0.34102  -0.33444  -0.32753
 Alpha  occ. eigenvalues --   -0.32147  -0.30909
 Alpha virt. eigenvalues --    0.02856   0.03250   0.03799   0.05355   0.06175
 Alpha virt. eigenvalues --    0.06242   0.06950   0.07358   0.07754   0.08321
 Alpha virt. eigenvalues --    0.08778   0.09466   0.09919   0.10105   0.10461

 Mulliken charges:
               1
     1  Pb   1.103458
     2  Cl  -0.607530
     3  Cl  -0.619273
     4  O   -0.384753
     5  C    0.384680
     6  O   -0.247023
     7  O   -0.229312
     8  C    0.071282
     9  C    0.014711
    10  C   -0.284746
    11  H    0.123922
    12  H    0.118332
    13  H    0.089091
    14  H    0.111028
    15  H    0.110791
    16  H    0.134369
    17  O   -0.392093
    18  C    0.384701
    19  O   -0.257524
    20  O   -0.225648
    21  C    0.070137
    22  C    0.013886
    23  C   -0.282996
    24  H    0.123199
    25  H    0.116768
    26  H    0.078177
    27  H    0.109090
    28  H    0.116858
    29  H    0.136107
    30  O   -0.419176
    31  C    0.396107
    32  O   -0.224407
    33  O   -0.218332
    34  C    0.070289
    35  C    0.013733
    36  C   -0.272985
    37  H    0.124558
    38  H    0.116965
    39  H    0.078327
    40  H    0.101897
    41  H    0.109351
    42  H    0.136427
    43  O   -0.449798
    44  C    0.480207
    45  O   -0.220120
    46  O   -0.228867
    47  C    0.065494
    48  C   -0.007263
    49  C   -0.274399
    50  H    0.130867
    51  H    0.136302
    52  H    0.106932
    53  H    0.114209
    54  H    0.117687
    55  H    0.136302
 Sum of Mulliken charges =  -0.00000

 Dipole moment (field-independent basis, Debye):
    X=              3.7906    Y=              7.6074    Z=             -4.0505  Tot=              9.4153
 Quadrupole moment (field-independent basis, Debye-Ang):
   XX=            -65.6789   YY=           -157.8650   ZZ=           -220.3600
   XY=              5.2545   XZ=              4.8509   YZ=             -9.3830

 Normal termination of Gaussian 16 at Thu Nov 12 15:25:22 2020.
